============================== echo of input deck ==============================
echo
start nwc_gbe_dat
title "E and Grad of 1UBQ"
#memory stack 800 mb heap 100 mb global 2000 mb noverify
geometry noautoz
   load format pdb "dgrtl.pdb"
end
basis 631g spherical
  * library 6-31g
end
basis 631gp spherical
  * library 6-31g*
end
basis pvdz spherical
  * library cc-pVDZ
end
basis pvtz spherical
  * library cc-pVTZ
end
basis pvqz spherical
  * library cc-pVQZ
end

set "ao basis" pvdz
charge +1
scf
  thresh 1.0e-6
  tol2e 1.0e-10
  singlet
  rhf
  maxiter 300
end
set scf:pstat t
set tce:pstat t

tce
  2eorb
  2emet 15
  tilesize 35
  # attilesize 45
  attilesize 35
  thresh 1.0e-3
  maxiter 100
end

set tce:nts T

### tce restart ########
#
# when generating 2-electron integrals for the first time:
# uncomment "set tce:writeint T"
# in following runs please
# comment  "set tce:writeint T"
# and
# uncomment "set tce:readint T"
# it will save time :-)
#
set tce:tceiop 2048
set tce:writeint T
#set tce:readint T
#######################

task tce energy
================================================================================

 Output coordinates in angstroms (scale by  1.889725989 to convert to a.u.)

  No.       Tag          Charge          X              Y              Z
 ---- ---------------- ---------- -------------- -------------- --------------
    1 N                    7.0000     2.32906152     4.50497561    -1.74104900
    2 C                    6.0000     2.62746889     4.39747324    -0.31708893
    3 C                    6.0000     1.58316452     3.88229451     0.65826088
    4 O                    8.0000     1.96536223     3.17203504     1.63153031
    5 C                    6.0000     3.17093495     5.77310393     0.17051833
    6 C                    6.0000     4.61984434     5.98216592    -0.22109840
    7 O                    8.0000     5.17470143     7.06570304     0.06565919
    8 O                    8.0000     5.24172042     5.10923915    -0.84227389
    9 N                    7.0000     0.34751118     4.30287770     0.51273907
   10 C                    6.0000    -0.76651384     3.94357402     1.40931708
   11 C                    6.0000    -1.42962453     2.63454319     1.13913479
   12 O                    8.0000    -2.25461301     2.15397265     1.94921872
   13 N                    7.0000    -1.11857252     1.96615596     0.03444200
   14 C                    6.0000    -1.67514052     0.63072531    -0.26339357
   15 C                    6.0000    -0.80180935    -0.40750593     0.42477687
   16 O                    8.0000     0.35946097    -0.12200259     0.78880720
   17 C                    6.0000    -1.69557624     0.34016866    -1.76580603
   18 C                    6.0000    -2.45516489     1.39076317    -2.60100976
   19 C                    6.0000    -3.96055504     1.17262312    -2.27426608
   20 N                    7.0000    -4.36917204     2.37842516    -1.58917952
   21 C                    6.0000    -4.96902685     2.65972446    -0.47410020
   22 N                    7.0000    -5.40925757     1.78228945     0.40777548
   23 N                    7.0000    -5.10570620     3.97134461    -0.14396636
   24 N                    7.0000    -1.29538921    -1.61649224     0.52247552
   25 C                    6.0000    -0.56570687    -2.76611350     1.10378494
   26 C                    6.0000    -0.11142581    -3.65076119    -0.08128729
   27 O                    8.0000    -0.58915638    -3.48311333    -1.19864386
   28 C                    6.0000    -1.47918793    -3.59968258     2.05247294
   29 O                    8.0000    -2.57683571    -4.02927961     1.13594267
   30 C                    6.0000    -2.07456032    -2.87604938     3.24367474
   31 N                    7.0000     0.81388643    -4.54470352     0.20027685
   32 C                    6.0000     1.31248684    -5.50593605    -0.79835355
   33 C                    6.0000     0.14051370    -6.37085985    -1.25458680
   34 O                    8.0000     0.03870186    -6.62648525    -2.42370100
   35 C                    6.0000     2.45042237    -6.32411125    -0.15201459
   36 C                    6.0000     3.69261129    -5.59040550     0.35231822
   37 C                    6.0000     4.70766680    -6.58422804     0.94040330
   38 C                    6.0000     4.42413898    -4.91980436    -0.80833304
   39 H                    1.0000     2.58480150     5.43884488    -2.22572028
   40 H                    1.0000     3.37933543     3.54155260    -0.28833884
   41 H                    1.0000     2.54086211     6.60242560    -0.29281178
   42 H                    1.0000     3.10728899     5.79370085     1.30869185
   43 H                    1.0000     4.63044578     7.82303659     0.57710194
   44 H                    1.0000     0.13215710     4.95838079    -0.32175738
   45 H                    1.0000    -0.36130414     3.91589997     2.47409933
   46 H                    1.0000    -1.56787139     4.73520305     1.23444982
   47 H                    1.0000    -0.43275172     2.41605737    -0.67278395
   48 H                    1.0000    -2.75019383     0.59403206     0.11267823
   49 H                    1.0000    -0.61844170     0.29870313    -2.13699168
   50 H                    1.0000    -2.24657428    -0.64792209    -1.90153682
   51 H                    1.0000    -2.13236094     2.44339667    -2.30635858
   52 H                    1.0000    -2.24324701     1.27875011    -3.71576259
   53 H                    1.0000    -4.56233961     1.03107077    -3.23168567
   54 H                    1.0000    -4.13226686     0.23968514    -1.64266829
   55 H                    1.0000    -4.10975280     3.27006952    -2.14607627
   56 H                    1.0000    -5.28087180     0.72266712     0.22726890
   57 H                    1.0000    -5.89890886     2.12206391     1.31143854
   58 H                    1.0000    -4.71938051     4.73840703    -0.80284397
   59 H                    1.0000    -2.30014202    -1.78622743     0.15528244
   60 H                    1.0000     0.31698638    -2.39451640     1.72256942
   61 H                    1.0000    -0.86489037    -4.42176299     2.54748436
   62 H                    1.0000    -3.54691947    -3.89542208     1.63656496
   63 H                    1.0000    -3.19425144    -3.08211919     3.29344446
   64 H                    1.0000    -1.57788383    -3.24634598     4.20012593
   65 H                    1.0000    -1.89944599    -1.75508254     3.13355521
   66 H                    1.0000     1.22300061    -4.57417275     1.20254884
   67 H                    1.0000     1.73959766    -4.99148459    -1.72178413
   68 H                    1.0000     2.00208582    -6.87456009     0.73962515
   69 H                    1.0000     2.84186606    -6.97212753    -1.00439170
   70 H                    1.0000     3.33405558    -4.83613543     1.12860648
   71 H                    1.0000     4.58444703    -7.59838715     0.43407813
   72 H                    1.0000     5.76562815    -6.19704927     0.76348413
   73 H                    1.0000     4.52554617    -6.69481701     2.06102641
   74 H                    1.0000     4.08863545    -5.38948867    -1.79186445
   75 H                    1.0000     4.18170513    -3.80563401    -0.81677499
   76 H                    1.0000     5.54843388    -5.06355819    -0.68258005
   77 H                    1.0000     1.32610230     4.36202290    -1.85742047
   78 H                    1.0000    -5.55568790     4.22360296     0.69405940
   79 H                    1.0000    -0.54852316    -6.72763283    -0.57488815

         Total SCF energy =  -1891.265670284289

 Vector  152  Occ=0.000000D+00  E= 4.651698D-02

 Vector  153  Occ=0.000000D+00  E= 6.885455D-02

 Vector  154  Occ=0.000000D+00  E= 7.208554D-02

 Vector  155  Occ=0.000000D+00  E= 7.427468D-02

 Vector  156  Occ=0.000000D+00  E= 7.560347D-02

 Vector  157  Occ=0.000000D+00  E= 7.981203D-02

 Vector  158  Occ=0.000000D+00  E= 9.026081D-02

 Vector  159  Occ=0.000000D+00  E= 9.351117D-02

 Vector  160  Occ=0.000000D+00  E= 9.720936D-02

 Vector  161  Occ=0.000000D+00  E= 1.017058D-01

 Vector  162  Occ=0.000000D+00  E= 1.044829D-01

 Vector  163  Occ=0.000000D+00  E= 1.105500D-01

 Vector  164  Occ=0.000000D+00  E= 1.143978D-01

 Vector  165  Occ=0.000000D+00  E= 1.161175D-01

 Vector  166  Occ=0.000000D+00  E= 1.193764D-01

 Vector  167  Occ=0.000000D+00  E= 1.273491D-01

 Vector  168  Occ=0.000000D+00  E= 1.305489D-01

 Vector  169  Occ=0.000000D+00  E= 1.366152D-01

 Vector  170  Occ=0.000000D+00  E= 1.395465D-01

 Vector  171  Occ=0.000000D+00  E= 1.434156D-01

 Vector  172  Occ=0.000000D+00  E= 1.461138D-01

 Vector  173  Occ=0.000000D+00  E= 1.486784D-01

 Vector  174  Occ=0.000000D+00  E= 1.585125D-01

 Vector  175  Occ=0.000000D+00  E= 1.590271D-01

 Vector  176  Occ=0.000000D+00  E= 1.668736D-01

 Vector  177  Occ=0.000000D+00  E= 1.706724D-01

 Vector  178  Occ=0.000000D+00  E= 1.741295D-01

 Vector  179  Occ=0.000000D+00  E= 1.749199D-01

 Vector  180  Occ=0.000000D+00  E= 1.780726D-01

 Vector  181  Occ=0.000000D+00  E= 1.844495D-01

 Vector  182  Occ=0.000000D+00  E= 1.869878D-01

 Vector  183  Occ=0.000000D+00  E= 1.892348D-01

 Vector  184  Occ=0.000000D+00  E= 1.948137D-01

 Vector  185  Occ=0.000000D+00  E= 1.987075D-01

 Vector  186  Occ=0.000000D+00  E= 2.032826D-01

 Vector  187  Occ=0.000000D+00  E= 2.073873D-01

 Vector  188  Occ=0.000000D+00  E= 2.102356D-01

 Vector  189  Occ=0.000000D+00  E= 2.146406D-01

 Vector  190  Occ=0.000000D+00  E= 2.164876D-01

 Vector  191  Occ=0.000000D+00  E= 2.327690D-01

 Vector  192  Occ=0.000000D+00  E= 2.372346D-01

 Vector  193  Occ=0.000000D+00  E= 2.382386D-01

 Vector  194  Occ=0.000000D+00  E= 2.410480D-01

 Vector  195  Occ=0.000000D+00  E= 2.429713D-01

 Vector  196  Occ=0.000000D+00  E= 2.516062D-01

 Vector  197  Occ=0.000000D+00  E= 2.624982D-01

 Vector  198  Occ=0.000000D+00  E= 2.684840D-01

 Vector  199  Occ=0.000000D+00  E= 2.736080D-01

 Vector  200  Occ=0.000000D+00  E= 2.816319D-01

 Vector  201  Occ=0.000000D+00  E= 2.932464D-01

 Vector  202  Occ=0.000000D+00  E= 2.985287D-01

 Vector  203  Occ=0.000000D+00  E= 2.997350D-01

 Vector  204  Occ=0.000000D+00  E= 3.096771D-01

 Vector  205  Occ=0.000000D+00  E= 3.141975D-01

 Vector  206  Occ=0.000000D+00  E= 3.208316D-01

 Vector  207  Occ=0.000000D+00  E= 3.251247D-01

 Vector  208  Occ=0.000000D+00  E= 3.257838D-01

 Vector  209  Occ=0.000000D+00  E= 3.294438D-01

 Vector  210  Occ=0.000000D+00  E= 3.369187D-01

 Vector  211  Occ=0.000000D+00  E= 3.407543D-01

 Vector  212  Occ=0.000000D+00  E= 3.508677D-01

 Vector  213  Occ=0.000000D+00  E= 3.578482D-01

 Vector  214  Occ=0.000000D+00  E= 3.627384D-01

 Vector  215  Occ=0.000000D+00  E= 3.651821D-01

 Vector  216  Occ=0.000000D+00  E= 3.716450D-01

 Vector  217  Occ=0.000000D+00  E= 3.783803D-01

 Vector  218  Occ=0.000000D+00  E= 3.842389D-01

 Vector  219  Occ=0.000000D+00  E= 3.969326D-01

 Vector  220  Occ=0.000000D+00  E= 4.038635D-01

 Vector  221  Occ=0.000000D+00  E= 4.058832D-01

 Vector  222  Occ=0.000000D+00  E= 4.101199D-01

 Vector  223  Occ=0.000000D+00  E= 4.195027D-01

 Vector  224  Occ=0.000000D+00  E= 4.376691D-01

 Vector  225  Occ=0.000000D+00  E= 4.426110D-01

 Vector  226  Occ=0.000000D+00  E= 4.494816D-01

 Vector  227  Occ=0.000000D+00  E= 4.657362D-01

 Vector  228  Occ=0.000000D+00  E= 4.718994D-01

 Vector  229  Occ=0.000000D+00  E= 4.751589D-01

 Vector  230  Occ=0.000000D+00  E= 4.922184D-01

 Vector  231  Occ=0.000000D+00  E= 5.032911D-01

       Multipole analysis of the density wrt the origin
       ------------------------------------------------

     L   x y z        total         open         nuclear
     -   - - -        -----         ----         -------
     0   0 0 0      1.000000      0.000000    293.000000

     1   1 0 0     -9.559818      0.000000      0.000000
     1   0 1 0      6.367716      0.000000      0.000000
     1   0 0 1      0.449961      0.000000      0.000000

     2   2 0 0   -102.295044      0.000000   9285.601705
     2   1 1 0    -51.726008      0.000000   -325.019206
     2   1 0 1     10.481348      0.000000      9.772094
     2   0 2 0    -72.285652      0.000000  18185.756624
     2   0 1 1    -31.721154      0.000000   -124.980609

 CCSD total energy / hartree       =     -1897.464027742517828
 Total times  cpu:    18279.9s     wall:    18752.3s
