============================== echo of input deck ==============================
echo
start nwc_gbe_dat
title "E and Grad of 1UBQ"
#memory stack 800 mb heap 100 mb global 2000 mb noverify
geometry noautoz
   load format pdb "h2o.pdb"
end
basis 631g spherical
  * library 6-31g
end

set "ao basis" 631g
charge 0
scf
  thresh 1.0e-6
  tol2e 1.0e-10
  singlet
  rhf
  maxiter 300
end
set scf:pstat t
set tce:pstat t

task scf energy
================================================================================

         Total SCF energy =    -75.918680727506

 Vector    2  Occ=2.000000D+00  E=-1.266710D+00  Symmetry=a'

 Vector    3  Occ=2.000000D+00  E=-6.051445D-01  Symmetry=a'

 Vector    4  Occ=2.000000D+00  E=-5.244099D-01  Symmetry=a'

 Vector    5  Occ=2.000000D+00  E=-4.946757D-01  Symmetry=a"

 Vector    6  Occ=0.000000D+00  E= 1.422675D-01  Symmetry=a'

 Vector    7  Occ=0.000000D+00  E= 2.274238D-01  Symmetry=a'

 Vector    8  Occ=0.000000D+00  E= 9.683123D-01  Symmetry=a'

 Vector    9  Occ=0.000000D+00  E= 9.898702D-01  Symmetry=a'

 Vector   10  Occ=0.000000D+00  E= 1.163418D+00  Symmetry=a"

 Vector   11  Occ=0.000000D+00  E= 1.237769D+00  Symmetry=a'

 Vector   12  Occ=0.000000D+00  E= 1.375672D+00  Symmetry=a'

 Vector   13  Occ=0.000000D+00  E= 1.645778D+00  Symmetry=a'

 Total times  cpu:        0.3s     wall:        0.9s
         Total SCF energy =    -75.918680727505

 Vector    2  Occ=2.000000D+00  E=-1.266710D+00  Symmetry=a'

 Vector    3  Occ=2.000000D+00  E=-6.051445D-01  Symmetry=a'

 Vector    4  Occ=2.000000D+00  E=-5.244099D-01  Symmetry=a'

 Vector    5  Occ=2.000000D+00  E=-4.946757D-01  Symmetry=a"

 Vector    6  Occ=0.000000D+00  E= 1.422675D-01  Symmetry=a'

 Vector    7  Occ=0.000000D+00  E= 2.274238D-01  Symmetry=a'

 Vector    8  Occ=0.000000D+00  E= 9.683123D-01  Symmetry=a'

 Vector    9  Occ=0.000000D+00  E= 9.898702D-01  Symmetry=a'

 Vector   10  Occ=0.000000D+00  E= 1.163418D+00  Symmetry=a"

 Vector   11  Occ=0.000000D+00  E= 1.237769D+00  Symmetry=a'

 Vector   12  Occ=0.000000D+00  E= 1.375672D+00  Symmetry=a'

 Vector   13  Occ=0.000000D+00  E= 1.645778D+00  Symmetry=a'

 CCSD total energy / hartree       =       -76.076594751165857
 Total times  cpu:        0.4s     wall:        1.0s

 Output coordinates in angstroms (scale by  1.889725989 to convert to a.u.)

  No.       Tag          Charge          X              Y              Z
 ---- ---------------- ---------- -------------- -------------- --------------
    1 O                    8.0000    -0.14232380    -0.00111119     0.00000000
    2 H                    1.0000     0.56557384     0.94797570     0.00000000
    3 H                    1.0000     0.57301659    -0.93908620     0.00000000

         Total SCF energy =    -75.918680727506

 Vector    2  Occ=2.000000D+00  E=-1.266710D+00  Symmetry=a'

 Vector    3  Occ=2.000000D+00  E=-6.051445D-01  Symmetry=a'

 Vector    4  Occ=2.000000D+00  E=-5.244099D-01  Symmetry=a'

 Vector    5  Occ=2.000000D+00  E=-4.946757D-01  Symmetry=a"

 Vector    6  Occ=0.000000D+00  E= 1.422675D-01  Symmetry=a'

 Vector    7  Occ=0.000000D+00  E= 2.274238D-01  Symmetry=a'

 Vector    8  Occ=0.000000D+00  E= 9.683123D-01  Symmetry=a'

 Vector    9  Occ=0.000000D+00  E= 9.898702D-01  Symmetry=a'

 Vector   10  Occ=0.000000D+00  E= 1.163418D+00  Symmetry=a"

 Vector   11  Occ=0.000000D+00  E= 1.237769D+00  Symmetry=a'

 Vector   12  Occ=0.000000D+00  E= 1.375672D+00  Symmetry=a'

 Vector   13  Occ=0.000000D+00  E= 1.645778D+00  Symmetry=a'

       Multipole analysis of the density wrt the origin
       ------------------------------------------------

     L   x y z        total         open         nuclear
     -   - - -        -----         ----         -------
     0   0 0 0     -0.000000      0.000000     10.000000

     1   1 0 0      1.028816      0.000000     -0.000000
     1   0 1 0      0.005517      0.000000     -0.000000
     1   0 0 1      0.000000      0.000000      0.000000

     2   2 0 0     -4.623489      0.000000      2.893527
     2   1 1 0     -0.005299      0.000000     -0.002487
     2   1 0 1      0.000000      0.000000      0.000000
     2   0 2 0     -2.764648      0.000000      6.358461
     2   0 1 1      0.000000      0.000000      0.000000

 CCSD total energy / hartree       =       -76.076594751165871
 CCSD(T) total energy / hartree       =       -76.078677515746463
 Total times  cpu:        0.2s     wall:        0.8s
